# vtk DataFile Version 2.0
solid, Created by Gmsh
ASCII
DATASET UNSTRUCTURED_GRID
POINTS 14 double
0 0 0.1
0 0 0
0 0.1 0.1
0 0.1 0
0.1 0 0.1
0.1 0 0
0.1 0.1 0.1
0.1 0.1 0
0 0.05 0.05
0.1 0.05 0.05
0.05 0 0.05
0.05 0.1 0.05
0.05 0.05 0
0.05 0.05 0.1

CELLS 24 120
4 11 8 10 13
4 8 12 11 10
4 12 11 10 9
4 13 10 11 9
4 12 1 8 3
4 11 3 8 2
4 8 1 10 0
4 1 12 10 5
4 13 0 10 4
4 9 4 10 5
4 9 12 7 5
4 12 3 11 7
4 0 8 2 13
4 11 2 13 6
4 6 4 13 9
4 7 6 11 9
4 8 11 2 13
4 10 13 4 9
4 6 13 11 9
4 11 12 7 9
4 9 10 12 5
4 0 10 8 13
4 8 12 3 11
4 8 1 12 10

CELL_TYPES 24
10
10
10
10
10
10
10
10
10
10
10
10
10
10
10
10
10
10
10
10
10
10
10
10

CELL_DATA 24
SCALARS CellEntityIds int 1
LOOKUP_TABLE default
1
1
1
1
1
1
1
1
1
1
1
1
1
1
1
1
1
1
1
1
1
1
1
1
