# vtk DataFile Version 2.0
solid, Created by Gmsh
ASCII
DATASET UNSTRUCTURED_GRID
POINTS 45 double
0 0 0.1
0 0 0
0 0.1 0.1
0 0.1 0
0.1 0 0.1
0.1 0 0
0.1 0.1 0.1
0.1 0.1 0
0 0 0.05000000000000009
0 0.05000000000000009 0.1
0 0.1 0.05000000000000009
0 0.05000000000000009 0
0.1 0 0.05000000000000009
0.1 0.05000000000000009 0.1
0.1 0.1 0.05000000000000009
0.1 0.05000000000000009 0
0.05000000000000009 0 0
0.05000000000000009 0 0.1
0.05000000000000009 0.1 0
0.05000000000000009 0.1 0.1
0 0.0261388483965015 0.0261388483965015
0 0.03750000000000002 0.06250000000000004
0 0.06425230806608359 0.03508564139941694
0 0.07187499999999999 0.07187499999999999
0.1 0.0261388483965015 0.0261388483965015
0.1 0.03750000000000002 0.06250000000000004
0.1 0.06425230806608359 0.03508564139941694
0.1 0.07187499999999999 0.07187499999999999
0.0261388483965015 0 0.0261388483965015
0.06250000000000004 0 0.03750000000000002
0.03508564139941694 0 0.06425230806608359
0.07187499999999999 0 0.07187499999999999
0.0261388483965015 0.1 0.0261388483965015
0.06250000000000004 0.1 0.03750000000000002
0.03508564139941694 0.1 0.06425230806608359
0.07187499999999999 0.1 0.07187499999999999
0.0261388483965015 0.0261388483965015 0
0.03750000000000002 0.06250000000000004 0
0.06425230806608359 0.03508564139941694 0
0.07187499999999999 0.07187499999999999 0
0.0261388483965015 0.0261388483965015 0.1
0.03750000000000002 0.06250000000000004 0.1
0.06425230806608359 0.03508564139941694 0.1
0.07187499999999999 0.07187499999999999 0.1
0.05736607142857143 0.05736607142857143 0.05736607142857144

CELLS 100 500
4 28 36 20 44
4 28 29 36 44
4 38 36 29 44
4 38 37 36 44
4 28 30 29 44
4 20 22 21 44
4 38 29 24 44
4 37 32 22 44
4 21 40 30 44
4 26 38 24 44
4 30 40 42 44
4 34 22 32 44
4 11 20 36 22
4 8 28 20 30
4 39 38 26 44
4 34 23 22 44
4 30 42 31 44
4 37 33 32 44
4 41 40 21 44
4 24 29 25 44
4 39 37 38 44
4 23 21 22 44
4 30 31 29 44
4 33 35 27 14
4 43 13 25 27
4 43 41 19 35
4 23 41 21 44
4 33 37 39 44
4 25 29 31 44
4 35 33 27 44
4 25 43 27 44
4 35 43 41 44
4 33 39 26 44
4 23 34 41 44
4 25 31 42 44
4 37 11 36 22
4 21 8 20 30
4 34 32 33 44
4 25 26 24 44
4 41 42 40 44
4 13 25 42 43
4 34 19 41 35
4 27 26 33 14
4 43 35 27 44
4 34 32 22 10
4 40 17 30 42
4 24 26 15 38
4 26 27 33 44
4 35 41 34 44
4 42 43 25 44
4 42 17 30 31
4 22 23 34 10
4 26 39 15 38
4 23 34 2 41
4 26 33 7 39
4 42 31 25 4
4 29 38 24 5
4 32 3 37 22
4 30 21 0 40
4 21 41 9 40
4 29 24 25 12
4 37 32 33 18
4 25 31 29 12
4 23 41 9 21
4 18 33 37 39
4 4 25 42 13
4 26 33 14 7
4 19 2 34 41
4 11 37 3 22
4 21 0 8 30
4 16 38 29 5
4 35 6 43 27
4 31 25 4 12
4 41 2 23 9
4 18 7 33 39
4 37 3 32 18
4 9 0 21 40
4 12 29 24 5
4 6 43 19 35
4 27 35 6 14
4 13 43 6 27
4 17 30 0 40
4 15 24 38 5
4 22 32 3 10
4 23 34 10 2
4 31 42 17 4
4 39 7 26 15
4 20 36 1 11
4 1 28 16 36
4 1 8 28 20
4 26 25 27 44
4 35 34 33 44
4 41 43 42 44
4 36 1 28 20
4 36 29 16 38
4 16 29 36 28
4 20 30 44 21
4 44 30 20 28
4 36 22 44 37
4 44 22 36 20

CELL_TYPES 100
10
10
10
10
10
10
10
10
10
10
10
10
10
10
10
10
10
10
10
10
10
10
10
10
10
10
10
10
10
10
10
10
10
10
10
10
10
10
10
10
10
10
10
10
10
10
10
10
10
10
10
10
10
10
10
10
10
10
10
10
10
10
10
10
10
10
10
10
10
10
10
10
10
10
10
10
10
10
10
10
10
10
10
10
10
10
10
10
10
10
10
10
10
10
10
10
10
10
10
10

CELL_DATA 100
SCALARS CellEntityIds int 1
LOOKUP_TABLE default
1
1
1
1
1
1
1
1
1
1
1
1
1
1
1
1
1
1
1
1
1
1
1
1
1
1
1
1
1
1
1
1
1
1
1
1
1
1
1
1
1
1
1
1
1
1
1
1
1
1
1
1
1
1
1
1
1
1
1
1
1
1
1
1
1
1
1
1
1
1
1
1
1
1
1
1
1
1
1
1
1
1
1
1
1
1
1
1
1
1
1
1
1
1
1
1
1
1
1
1
