# vtk DataFile Version 2.0
untitled, Created by Gmsh
ASCII
DATASET UNSTRUCTURED_GRID
POINTS 110 double
0 0 0
0 1 0
1 0 0
1 1 0
0 0 0.1
1 0 0.1
0 1 0.1
1 1 0.1
0.1999999999995579 1 0
0.3999999999989749 1 0
0.5999999999989468 1 0
0.7999999999994734 1 0
0 0.1999999999995579 0
0 0.3999999999989749 0
0 0.5999999999989468 0
0 0.7999999999994734 0
0.1999999999995579 0 0
0.3999999999989749 0 0
0.5999999999989468 0 0
0.7999999999994734 0 0
1 0.7999999999999998 0
1 0.6000000000013869 0
1 0.4000000000016644 0
1 0.2000000000008322 0
0.1999999999995579 1 0.1
0.3999999999989749 1 0.1
0.5999999999989468 1 0.1
0.7999999999994734 1 0.1
0.1999999999995579 0 0.1
0.3999999999989749 0 0.1
0.5999999999989468 0 0.1
0.7999999999994734 0 0.1
0 0.1999999999995579 0.1
0 0.3999999999989749 0.1
0 0.5999999999989468 0.1
0 0.7999999999994734 0.1
1 0.1999999999995579 0.1
1 0.3999999999989749 0.1
1 0.5999999999989468 0.1
1 0.7999999999994734 0.1
0.15808081062238 0.4881383669497568 0
0.8277386580273453 0.4983653964791448 0
0.4919666980267656 0.83630110503643 0
0.4903320945046199 0.1627551561803854 0
0.8307029123438274 0.3007481903592943 0
0.670747552638816 0.3961510017805169 0
0.6755341817865794 0.6002089867643338 0
0.4803847577308974 0.5000000000022096 0
0.1482630627080392 0.300078179604897 0
0.1916013298808871 0.6819202846833182 0
0.6893290653691431 0.8148028884947337 0
0.6838927383356229 0.1880448979458548 0
0.8410319572781072 0.6944945183708857 0
0.3063847948564729 0.8379182152011501 0
0.2943429854791719 0.1912596090856653 0
0.400476606835256 0.3357911532458112 0
0.3898348783527075 0.6793903549544847 0
0.3267949192434382 0.5304523005890249 0
0.8535898384855751 0.8535898384857162 0
0.8535898384852797 0.1464101615148021 0
0.1464101615143063 0.8535898384854342 0
0.1464101615134002 0.1464101615134002 0
0.5418767703783969 0.3102497757859854 0
0.5418767703777837 0.6897502242147763 0
0.2727578894958402 0.3907680564607438 0
0.17226134197284 0.4983653964764102 0.1
0.841919189377117 0.4881383669495463 0.1
0.5080333019713144 0.8363011050362374 0.1
0.509667905493903 0.1627551561796333 0.1
0.1692970876560175 0.3007481903567547 0.1
0.3292524473612446 0.3961510017781125 0.1
0.3244658182129918 0.6002089867625384 0.1
0.519615242269668 0.499999999998377 0.1
0.8083986701185238 0.6819202846830784 0.1
0.8517369372912184 0.3000781796046493 0.1
0.3106709346294849 0.8148028884945022 0.1
0.6936152051421708 0.8379182152009221 0.1
0.1589680427214254 0.6944945183697292 0.1
0.7056570145194043 0.1912596090849113 0.1
0.3161072616634362 0.1880448979446501 0.1
0.6101651216464374 0.6793903549536836 0.1
0.5995233931629027 0.3357911532434984 0.1
0.6732050807564646 0.530452300588695 0.1
0.8535898384858706 0.8535898384858706 0.1
0.1464101615134002 0.1464101615134002 0.1
0.1464101615132356 0.8535898384865049 0.1
0.8535898384864212 0.1464101615133194 0.1
0.4581232296204842 0.6897502242147914 0.1
0.458123229620956 0.3102497757846501 0.1
0.727242110502182 0.3907680564593791 0.1
0 0.69999999999921 0.05
0 0.8999999999997366 0.05
0 0.4999999999989608 0.05
0 0.09999999999977893 0.05
0 0.2999999999992664 0.05
0.69999999999921 1 0.05
0.8999999999997366 1 0.05
0.4999999999989608 1 0.05
0.09999999999977893 1 0.05000000000000002
0.2999999999992664 1 0.05
0.69999999999921 0 0.05
0.8999999999997367 0 0.05
0.4999999999989608 0 0.05
0.09999999999977893 0 0.05
0.2999999999992664 0 0.05
1 0.6999999999999518 0.05
1 0.1000000000000975 0.05
1 0.8999999999998682 0.05
1 0.3000000000002573 0.05
1 0.5000000000002432 0.05

CELLS 266 1330
4 33 92 34 65
4 22 109 21 41
4 108 44 22 23
4 69 33 94 32
4 76 26 27 95
4 53 9 8 99
4 34 90 35 77
4 52 20 105 21
4 67 97 25 26
4 42 10 9 97
4 10 11 95 50
4 25 24 99 75
4 78 30 100 31
4 16 104 17 54
4 12 94 48 13
4 36 74 37 108
4 100 18 51 19
4 104 28 29 79
4 92 40 13 14
4 37 109 66 38
4 14 49 15 90
4 38 73 39 105
4 68 29 102 30
4 17 43 102 18
4 85 6 91 35
4 83 27 7 96
4 23 2 106 59
4 3 107 58 20
4 12 0 61 93
4 32 4 93 84
4 86 5 106 36
4 8 1 60 98
4 31 5 101 86
4 16 61 0 103
4 11 3 96 58
4 85 98 6 24
4 59 2 101 19
4 28 4 84 103
4 1 15 60 91
4 7 39 83 107
4 91 60 1 98
4 101 106 2 59
4 107 96 3 58
4 96 7 83 107
4 93 0 61 103
4 4 93 84 103
4 98 6 91 85
4 5 106 101 86
4 61 104 54 84
4 86 100 78 59
4 86 31 100 59
4 61 16 104 84
4 84 104 54 79
4 51 78 100 59
4 99 8 53 24
4 27 11 76 95
4 16 104 84 28
4 59 31 100 19
4 100 78 31 86
4 104 16 61 54
4 77 34 14 65
4 38 52 21 41
4 24 53 99 75
4 95 11 76 50
4 48 40 33 69
4 74 66 22 44
4 30 100 18 51
4 17 104 29 79
4 28 104 84 79
4 59 100 51 19
4 105 73 39 52
4 90 49 15 77
4 100 30 78 51
4 104 17 54 79
4 42 97 25 67
4 97 42 10 67
4 26 76 10 95
4 99 53 9 25
4 94 48 69 32
4 108 74 44 23
4 44 22 74 108
4 94 48 33 69
4 65 33 40 69
4 41 22 66 44
4 29 102 43 68
4 68 102 43 18
4 67 10 97 26
4 97 9 42 25
4 67 76 10 26
4 53 42 9 25
4 35 90 15 77
4 20 105 39 52
4 74 66 37 22
4 48 40 13 33
4 95 76 10 50
4 99 53 25 75
4 10 76 67 50
4 25 53 42 75
4 40 92 33 65
4 66 109 22 41
4 48 94 12 32
4 36 74 108 23
4 22 37 74 108
4 13 94 48 33
4 52 105 38 21
4 34 14 90 77
4 67 42 10 50
4 75 42 25 67
4 13 40 92 33
4 37 66 109 22
4 38 73 105 52
4 14 49 90 77
4 79 29 43 68
4 18 43 68 51
4 98 91 60 85
4 84 93 61 103
4 83 96 107 58
4 106 101 86 59
4 102 43 17 29
4 102 68 30 18
4 29 43 17 79
4 18 68 30 51
4 70 57 71 72
4 68 78 30 51
4 43 54 17 79
4 45 44 89 51
4 47 57 70 72
4 50 80 67 63
4 56 42 75 87
4 57 49 40 65
4 82 73 66 41
4 44 78 89 51
4 67 76 80 50
4 56 42 53 75
4 79 43 55 88
4 62 81 68 51
4 50 67 42 63
4 42 75 87 67
4 60 53 8 85
4 46 50 73 52
4 71 75 49 77
4 72 80 46 63
4 75 49 56 71
4 50 73 80 46
4 85 53 8 24
4 27 76 11 83
4 40 48 64 69
4 66 74 89 44
4 54 55 64 70
4 88 47 55 70
4 72 81 62 45
4 46 47 72 63
4 49 56 53 75
4 73 80 76 50
4 65 40 64 69
4 41 66 89 44
4 49 57 71 65
4 73 82 46 41
4 80 72 87 63
4 87 47 56 63
4 74 78 89 44
4 48 54 64 69
4 54 43 55 79
4 78 68 81 51
4 24 85 53 75
4 70 88 47 72
4 62 47 72 45
4 44 89 41 45
4 69 64 65 70
4 68 43 62 51
4 88 79 43 68
4 48 12 61 32
4 36 74 23 59
4 48 69 32 84
4 74 44 23 59
4 49 71 77 65
4 73 46 52 41
4 83 39 73 52
4 60 15 49 77
4 72 88 47 62
4 72 47 87 63
4 85 15 77 35
4 39 58 20 52
4 80 50 46 63
4 71 56 75 87
4 32 61 48 84
4 74 36 86 59
4 55 54 79 70
4 55 47 88 62
4 88 72 81 62
4 73 76 83 50
4 15 85 77 60
4 58 39 83 52
4 57 71 65 70
4 82 46 41 45
4 72 80 82 46
4 32 61 93 12
4 23 106 36 59
4 55 79 88 70
4 81 62 45 51
4 47 57 55 70
4 82 81 72 45
4 61 32 93 84
4 106 86 36 59
4 98 60 8 85
4 49 57 56 71
4 82 80 73 46
4 85 8 98 24
4 11 27 83 96
4 65 64 57 70
4 41 89 82 45
4 59 31 101 86
4 84 61 16 103
4 96 83 11 58
4 89 81 82 45
4 64 55 57 70
4 39 58 107 20
4 85 91 15 35
4 82 66 89 41
4 57 40 64 65
4 58 39 107 83
4 15 60 91 85
4 88 43 55 62
4 88 81 68 62
4 31 59 101 19
4 28 84 16 103
4 51 44 78 59
4 84 54 69 79
4 67 80 87 63
4 56 42 87 63
4 68 43 88 62
4 67 87 42 63
4 93 4 0 103
4 91 1 6 98
4 96 3 7 107
4 2 5 106 101
4 41 73 38 52
4 41 38 73 66
4 65 49 14 77
4 65 14 49 40
4 65 14 92 34
4 65 92 14 40
4 41 38 109 21
4 41 109 38 66
4 72 57 87 47
4 72 87 57 71
4 56 87 57 47
4 56 57 87 71
4 46 72 45 82
4 46 45 72 47
4 54 70 69 79
4 69 70 54 64
4 89 51 81 45
4 81 51 89 78
4 52 83 50 73
4 52 50 83 58
4 83 50 11 58
4 11 50 83 76
4 53 49 77 60
4 77 49 53 75
4 77 85 53 60
4 53 85 77 75
4 74 59 78 44
4 78 59 74 86
4 48 84 54 69
4 54 84 48 61

CELL_TYPES 266
10
10
10
10
10
10
10
10
10
10
10
10
10
10
10
10
10
10
10
10
10
10
10
10
10
10
10
10
10
10
10
10
10
10
10
10
10
10
10
10
10
10
10
10
10
10
10
10
10
10
10
10
10
10
10
10
10
10
10
10
10
10
10
10
10
10
10
10
10
10
10
10
10
10
10
10
10
10
10
10
10
10
10
10
10
10
10
10
10
10
10
10
10
10
10
10
10
10
10
10
10
10
10
10
10
10
10
10
10
10
10
10
10
10
10
10
10
10
10
10
10
10
10
10
10
10
10
10
10
10
10
10
10
10
10
10
10
10
10
10
10
10
10
10
10
10
10
10
10
10
10
10
10
10
10
10
10
10
10
10
10
10
10
10
10
10
10
10
10
10
10
10
10
10
10
10
10
10
10
10
10
10
10
10
10
10
10
10
10
10
10
10
10
10
10
10
10
10
10
10
10
10
10
10
10
10
10
10
10
10
10
10
10
10
10
10
10
10
10
10
10
10
10
10
10
10
10
10
10
10
10
10
10
10
10
10
10
10
10
10
10
10
10
10
10
10
10
10
10
10
10
10
10
10
10
10
10
10
10
10
10
10
10
10
10
10

CELL_DATA 266
SCALARS CellEntityIds int 1
LOOKUP_TABLE default
13
13
13
13
13
13
13
13
13
13
13
13
13
13
13
13
13
13
13
13
13
13
13
13
13
13
13
13
13
13
13
13
13
13
13
13
13
13
13
13
13
13
13
13
13
13
13
13
13
13
13
13
13
13
13
13
13
13
13
13
13
13
13
13
13
13
13
13
13
13
13
13
13
13
13
13
13
13
13
13
13
13
13
13
13
13
13
13
13
13
13
13
13
13
13
13
13
13
13
13
13
13
13
13
13
13
13
13
13
13
13
13
13
13
13
13
13
13
13
13
13
13
13
13
13
13
13
13
13
13
13
13
13
13
13
13
13
13
13
13
13
13
13
13
13
13
13
13
13
13
13
13
13
13
13
13
13
13
13
13
13
13
13
13
13
13
13
13
13
13
13
13
13
13
13
13
13
13
13
13
13
13
13
13
13
13
13
13
13
13
13
13
13
13
13
13
13
13
13
13
13
13
13
13
13
13
13
13
13
13
13
13
13
13
13
13
13
13
13
13
13
13
13
13
13
13
13
13
13
13
13
13
13
13
13
13
13
13
13
13
13
13
13
13
13
13
13
13
13
13
13
13
13
13
13
13
13
13
13
13
13
13
13
13
13
13
